# vtk DataFile Version 3.0
Vortex Output
ASCII
DATASET STRUCTURED_POINTS
FIELD FieldData 2
TIME 1 1 double
5.001909
CYCLE 1 1 int
2072
DIMENSIONS 514 130 1
ORIGIN 0 0 0
SPACING 1 1 1
POINT_DATA 66820
SCALARS u double 1
LOOKUP_TABLE default
1.000081879411e+00 1.000081879411e+00 1.000328775089e+00 1.000740194517e+00 1.001317800273e+00 1.002061213668e+00 1.002972344303e+00 1.004051023515e+00 1.005299379037e+00 1.006717412897e+00 1.008307435665e+00 1.010069568813e+00 1.012006257678e+00 1.014117679022e+00 1.016406352111e+00 1.018872432157e+00 1.021518439065e+00 1.024344417357e+00 1.027352802356e+00 1.030543427186e+00 1.033918546370e+00 1.037477670562e+00 1.041222767781e+00 1.045152906638e+00 1.049269655677e+00 1.053571516059e+00 1.058059539684e+00 1.062731532569e+00 1.067587912625e+00 1.072625665262e+00 1.077844461840e+00 1.083240349384e+00 1.088812150790e+00 1.094554870871e+00 1.100466399371e+00 1.106540615847e+00 1.112774416411e+00 1.119160500107e+00 1.125694740055e+00 1.132368633996e+00 1.139177040082e+00 1.146110274099e+00 1.153162229592e+00 1.160322103869e+00 1.167582921474e+00 1.174932870459e+00 1.182364247447e+00 1.189864384855e+00 1.197425035003e+00 1.205032868052e+00 1.212679311854e+00 1.220350599452e+00 1.228038080728e+00 1.235727797514e+00 1.243411282623e+00 1.251074640086e+00 1.258709846917e+00 1.266303315816e+00 1.273847714987e+00 1.281329991014e+00 1.288743722100e+00 1.296076579779e+00 1.303323231014e+00 1.310472218992e+00 1.317519429331e+00 1.324454372505e+00 1.331274228768e+00 1.337969517720e+00 1.344538735195e+00 1.350973399208e+00 1.357273289674e+00 1.363430864493e+00 1.369447109405e+00 1.375315323326e+00 1.381037580695e+00 1.386607891520e+00 1.392029272104e+00 1.397296292686e+00 1.402412744410e+00 1.407373596053e+00 1.412183235519e+00 1.416836867033e+00 1.421339294352e+00 1.425685800983e+00 1.429881429816e+00 1.433921401409e+00 1.437810830972e+00 1.441544753448e+00 1.445128203955e+00 1.448555933077e+00 1.451832761231e+00 1.454953083042e+00 1.457921389922e+00 1.460731678335e+00 1.463388018466e+00 1.465883997202e+00 1.468223194550e+00 1.470398807811e+00 1.472413881776e+00 1.474261275422e+00 1.475943477306e+00 1.477453089669e+00 1.478792047324e+00 1.479952805815e+00 1.480936770909e+00 1.481736386887e+00 1.482352574814e+00 1.482777923492e+00 1.483012928079e+00 1.483050490772e+00 1.482890768909e+00 1.482527217530e+00 1.481959799934e+00 1.481182730122e+00 1.480195867401e+00 1.478994382109e+00 1.477578135861e+00 1.475943456195e+00 1.474090317377e+00 1.472016395602e+00 1.469721883687e+00 1.467205981353e+00 1.464469197044e+00 1.461512406017e+00 1.458336516054e+00 1.454944201549e+00 1.451336836480e+00 1.447518985312e+00 1.443492535713e+00 1.439263997474e+00 1.434835798679e+00 1.430216412478e+00 1.425408813124e+00 1.420423417853e+00 1.415263732816e+00 1.409942064062e+00 1.404462417351e+00 1.398838898821e+00 1.393075966394e+00 1.387189407674e+00 1.381184073641e+00 1.375077289137e+00 1.368874231304e+00 1.362593597112e+00 1.356240819167e+00 1.349835785434e+00 1.343384113336e+00 1.336906689429e+00 1.330409248860e+00 1.323913477474e+00 1.317425167609e+00 1.310966602039e+00 1.304543578687e+00 1.298178775008e+00 1.291877953481e+00 1.285663986521e+00 1.279542571627e+00 1.273536580615e+00 1.267651628128e+00 1.261910394838e+00 1.256318405770e+00 1.250897965047e+00 1.245654511199e+00 1.240609790959e+00 1.235769167505e+00 1.231153652697e+00 1.226768551002e+00 1.222633963475e+00 1.218755154849e+00 1.215151138546e+00 1.211827156966e+00 1.208800955056e+00 1.206077763907e+00 1.203673871187e+00 1.201594495420e+00 1.199854265307e+00 1.198458366369e+00 1.197419548944e+00 1.196742921704e+00 1.196439126536e+00 1.196513166878e+00 1.196973443776e+00 1.197824910370e+00 1.199073511585e+00 1.200723994716e+00 1.202779535872e+00 1.205244513068e+00 1.208119035439e+00 1.211406929657e+00 1.215104937850e+00 1.219216129745e+00 1.223733582831e+00 1.228659384899e+00 1.233982663551e+00 1.239704288774e+00 1.245809178910e+00 1.252296751113e+00 1.259147497144e+00 1.266359161472e+00 1.273907652032e+00 1.281788852096e+00 1.289974007551e+00 1.298457000419e+00 1.307204434018e+00 1.316208114435e+00 1.325430136725e+00 1.334860237209e+00 1.344456265943e+00 1.354205989221e+00 1.364063414073e+00 1.374014538695e+00 1.384010071804e+00 1.394034550995e+00 1.404036071352e+00 1.413998120101e+00 1.423866993010e+00 1.433625630318e+00 1.443219454249e+00 1.452631438118e+00 1.461807142005e+00 1.470730206076e+00 1.479347392600e+00 1.487643667474e+00 1.495568074068e+00 1.503107555028e+00 1.510214485960e+00 1.516878393647e+00 1.523055964805e+00 1.528739837264e+00 1.533891870816e+00 1.538508224657e+00 1.542556633961e+00 1.546037039448e+00 1.548923555678e+00 1.551219986220e+00 1.552907099677e+00 1.553992447483e+00 1.554463492919e+00 1.554331262397e+00 1.553589965671e+00 1.552253992836e+00 1.550323992821e+00 1.547817113885e+00 1.544739986377e+00 1.541111971516e+00 1.536945170559e+00 1.532260606854e+00 1.527075275582e+00 1.521411302786e+00 1.515289945048e+00 1.508733876322e+00 1.501767946232e+00 1.494414844445e+00 1.486702332016e+00 1.478652622683e+00 1.470295716377e+00 1.461652915665e+00 1.452755815997e+00 1.443624442277e+00 1.434291388040e+00 1.424775110966e+00 1.415108663850e+00 1.405308728341e+00 1.395408344763e+00 1.385422290388e+00 1.375383192883e+00 1.365303873362e+00 1.355216219029e+00 1.345131112812e+00 1.335079443817e+00 1.325070235576e+00 1.315133187023e+00 1.305275591584e+00 1.295525825151e+00 1.285889619894e+00 1.276393947454e+00 1.267043176189e+00 1.257862835765e+00 1.248856146258e+00 1.240047192716e+00 1.231438270856e+00 1.223052045213e+00 1.214890110813e+00 1.206973754501e+00 1.199304086495e+00 1.191901069884e+00 1.184765531767e+00 1.177916169381e+00 1.171353708806e+00 1.165095636633e+00 1.159142735869e+00 1.153511328669e+00 1.148202384825e+00 1.143231093278e+00 1.138598708778e+00 1.134319297442e+00 1.130394462018e+00 1.126837129659e+00 1.123649275600e+00 1.120842639971e+00 1.118419553448e+00 1.116390485009e+00 1.114758061087e+00 1.113531359186e+00 1.112713204983e+00 1.112311141910e+00 1.112328100174e+00 1.112769995540e+00 1.113639782960e+00 1.114941523201e+00 1.116677897208e+00 1.118850771763e+00 1.121462250175e+00 1.124511680614e+00 1.128000282411e+00 1.131924563243e+00 1.136284553117e+00 1.141073612829e+00 1.146290293031e+00 1.151924534466e+00 1.157973149882e+00 1.164422437817e+00 1.171267260727e+00 1.178490119075e+00 1.186083770037e+00 1.194026837556e+00 1.202309882794e+00 1.210907658685e+00 1.219808506558e+00 1.228983400351e+00 1.238418504295e+00 1.248081191781e+00 1.257955557565e+00 1.268005638436e+00 1.278213630942e+00 1.288540584284e+00 1.298967031993e+00 1.309451470504e+00 1.319973071500e+00 1.330488300827e+00 1.340975338422e+00 1.351389230181e+00 1.361707605606e+00 1.371884788489e+00 1.381898369931e+00 1.391702731020e+00 1.401276001931e+00 1.410573470151e+00 1.419574436182e+00 1.428235993511e+00 1.436539279086e+00 1.444444115611e+00 1.451934151365e+00 1.458972851129e+00 1.465547025697e+00 1.471624644690e+00 1.477196271491e+00 1.482235149324e+00 1.486736082060e+00 1.490678214178e+00 1.494060930994e+00 1.496869713097e+00 1.499108669083e+00 1.500769794814e+00 1.501861794545e+00 1.502383013949e+00 1.502346241055e+00 1.501755569016e+00 1.500627089166e+00 1.498969993634e+00 1.496803064905e+00 1.494140057864e+00 1.491001846690e+00 1.487406133834e+00 1.483375242844e+00 1.478930142425e+00 1.474093941868e+00 1.468890158372e+00 1.463342033134e+00 1.457474911557e+00 1.451311553607e+00 1.444878441710e+00 1.438197308179e+00 1.431295136282e+00 1.424192169957e+00 1.416915330953e+00 1.409483011184e+00 1.401921593916e+00 1.394247356575e+00 1.386485757233e+00 1.378650795350e+00 1.370766706509e+00 1.362845140445e+00 1.354908897112e+00 1.346967285598e+00 1.339041532817e+00 1.331138683990e+00 1.323278321000e+00 1.315465355531e+00 1.307717706718e+00 1.300038322478e+00 1.292443484627e+00 1.284934373255e+00 1.277525690978e+00 1.270217060293e+00 1.263021686080e+00 1.255937847628e+00 1.248977348853e+00 1.242137336142e+00 1.235428317921e+00 1.228846507521e+00 1.222401226819e+00 1.216087940891e+00 1.209914893492e+00 1.203876968164e+00 1.197981435556e+00 1.192222744630e+00 1.186607292551e+00 1.181129220267e+00 1.175794144399e+00 1.170596004311e+00 1.165539721602e+00 1.160619121192e+00 1.155838507435e+00 1.151191659942e+00 1.146682335806e+00 1.142304322037e+00 1.138060890805e+00 1.133945874517e+00 1.129962115410e+00 1.126103516362e+00 1.122372537712e+00 1.118763166739e+00 1.115277523422e+00 1.111909683958e+00 1.108661463529e+00 1.105527023990e+00 1.102507905877e+00 1.099598347208e+00 1.096799639209e+00 1.094106081746e+00 1.091518737882e+00 1.089031951488e+00 1.086646575072e+00 1.084356976318e+00 1.082163811890e+00 1.080061451793e+00 1.078050369335e+00 1.076124914972e+00 1.074285389571e+00 1.072526102617e+00 1.070847192507e+00 1.069242907503e+00 1.067713233177e+00 1.066252338102e+00 1.064860064929e+00 1.063530486412e+00 1.062263312989e+00 1.061052508276e+00 1.059897662544e+00 1.058792620199e+00 1.057736865212e+00 1.056724116372e+00 1.055753767538e+00 1.054819409534e+00 1.053920365103e+00 1.053050099257e+00 1.052207885935e+00 1.051387071465e+00 1.050586907153e+00 1.049800633301e+00 1.049027509225e+00 1.048260688023e+00 1.047499472821e+00 1.046736955300e+00 1.045972524164e+00 1.045199243344e+00 1.044416635839e+00 1.043617780524e+00 1.042802391496e+00 1.041963615640e+00 1.041101424415e+00 1.040209097721e+00 1.039286941661e+00 1.038328447878e+00 1.037334347197e+00 1.036298437437e+00 1.035221978972e+00 1.034099188067e+00 1.032931976351e+00 1.031715110915e+00 1.030451295458e+00 1.029136002699e+00 1.027772890562e+00 1.026358316833e+00 1.024897079235e+00 1.023386626560e+00 1.021833106903e+00 1.020235293664e+00 1.018600921595e+00 1.016930349928e+00 1.015233161323e+00 1.013511587945e+00 1.011777344348e+00 1.010034848039e+00 1.008298268948e+00 1.006574671744e+00 1.004881804869e+00 1.003234461230e+00 1.001681908642e+00 1.000000000000e+00 1.000000000000e+00 1.000000000000e+00 1.000000000000e+00 
1.000000000000e+00 1.000081879411e+00 1.000328775089e+00 1.000740194517e+00 1.001317800273e+00 1.002061213668e+00 1.002972344303e+00 1.004051023515e+00 1.005299379037e+00 1.006717412897e+00 1.008307435665e+00 1.010069568813e+00 1.012006257678e+00 1.014117679022e+00 1.016406352111e+00 1.018872432157e+00 1.021518439065e+00 1.024344417357e+00 1.027352802356e+00 1.030543427186e+00 1.033918546370e+00 1.037477670562e+00 1.041222767781e+00 1.045152906638e+00 1.049269655677e+00 1.053571516059e+00 1.058059539684e+00 1.062731532569e+00 1.067587912625e+00 1.072625665262e+00 1.077844461840e+00 1.083240349384e+00 1.088812150790e+00 1.094554870871e+00 1.100466399371e+00 1.106540615847e+00 1.112774416411e+00 1.119160500107e+00 1.125694740055e+00 1.132368633996e+00 1.139177040082e+00 1.146110274099e+00 1.153162229592e+00 1.160322103869e+00 1.167582921474e+00 1.174932870459e+00 1.182364247447e+00 1.189864384855e+00 1.197425035003e+00 1.205032868052e+00 1.212679311854e+00 1.220350599452e+00 1.228038080728e+00 1.235727797514e+00 1.243411282623e+00 1.251074640086e+00 1.258709846917e+00 1.266303315816e+00 1.273847714987e+00 1.281329991014e+00 1.288743722100e+00 1.296076579779e+00 1.303323231014e+00 1.310472218992e+00 1.317519429331e+00 1.324454372505e+00 1.331274228768e+00 1.337969517720e+00 1.344538735195e+00 1.350973399208e+00 1.357273289674e+00 1.363430864493e+00 1.369447109405e+00 1.375315323326e+00 1.381037580695e+00 1.386607891520e+00 1.392029272104e+00 1.397296292686e+00 1.402412744410e+00 1.407373596053e+00 1.412183235519e+00 1.416836867033e+00 1.421339294352e+00 1.425685800983e+00 1.429881429816e+00 1.433921401409e+00 1.437810830972e+00 1.441544753448e+00 1.445128203955e+00 1.448555933077e+00 1.451832761231e+00 1.454953083042e+00 1.457921389922e+00 1.460731678335e+00 1.463388018466e+00 1.465883997202e+00 1.468223194550e+00 1.470398807811e+00 1.472413881776e+00 1.474261275422e+00 1.475943477306e+00 1.477453089669e+00 1.478792047324e+00 1.479952805815e+00 1.480936770909e+00 1.481736386887e+00 1.482352574814e+00 1.482777923492e+00 1.483012928079e+00 1.483050490772e+00 1.482890768909e+00 1.482527217530e+00 1.481959799934e+00 1.481182730122e+00 1.480195867401e+00 1.478994382109e+00 1.477578135861e+00 1.475943456195e+00 1.474090317377e+00 1.472016395602e+00 1.469721883687e+00 1.467205981353e+00 1.464469197044e+00 1.461512406017e+00 1.458336516054e+00 1.454944201549e+00 1.451336836480e+00 1.447518985312e+00 1.443492535713e+00 1.439263997474e+00 1.434835798679e+00 1.430216412478e+00 1.425408813124e+00 1.420423417853e+00 1.415263732816e+00 1.409942064062e+00 1.404462417351e+00 1.398838898821e+00 1.393075966394e+00 1.387189407674e+00 1.381184073641e+00 1.375077289137e+00 1.368874231304e+00 1.362593597112e+00 1.356240819167e+00 1.349835785434e+00 1.343384113336e+00 1.336906689429e+00 1.330409248860e+00 1.323913477474e+00 1.317425167609e+00 1.310966602039e+00 1.304543578687e+00 1.298178775008e+00 1.291877953481e+00 1.285663986521e+00 1.279542571627e+00 1.273536580615e+00 1.267651628128e+00 1.261910394838e+00 1.256318405770e+00 1.250897965047e+00 1.245654511199e+00 1.240609790959e+00 1.235769167505e+00 1.231153652697e+00 1.226768551002e+00 1.222633963475e+00 1.218755154849e+00 1.215151138546e+00 1.211827156966e+00 1.208800955056e+00 1.206077763907e+00 1.203673871187e+00 1.201594495420e+00 1.199854265307e+00 1.198458366369e+00 1.197419548944e+00 1.196742921704e+00 1.196439126536e+00 1.196513166878e+00 1.196973443776e+00 1.197824910370e+00 1.199073511585e+00 1.200723994716e+00 1.202779535872e+00 1.205244513068e+00 1.208119035439e+00 1.211406929657e+00 1.215104937850e+00 1.219216129745e+00 1.223733582831e+00 1.228659384899e+00 1.233982663551e+00 1.239704288774e+00 1.245809178910e+00 1.252296751113e+00 1.259147497144e+00 1.266359161472e+00 1.273907652032e+00 1.281788852096e+00 1.289974007551e+00 1.298457000419e+00 1.307204434018e+00 1.316208114435e+00 1.325430136725e+00 1.334860237209e+00 1.344456265943e+00 1.354205989221e+00 1.364063414073e+00 1.374014538695e+00 1.384010071804e+00 1.394034550995e+00 1.404036071352e+00 1.413998120101e+00 1.423866993010e+00 1.433625630318e+00 1.443219454249e+00 1.452631438118e+00 1.461807142005e+00 1.470730206076e+00 1.479347392600e+00 1.487643667474e+00 1.495568074068e+00 1.503107555028e+00 1.510214485960e+00 1.516878393647e+00 1.523055964805e+00 1.528739837264e+00 1.533891870816e+00 1.538508224657e+00 1.542556633961e+00 1.546037039448e+00 1.548923555678e+00 1.551219986220e+00 1.552907099677e+00 1.553992447483e+00 1.554463492919e+00 1.554331262397e+00 1.553589965671e+00 1.552253992836e+00 1.550323992821e+00 1.547817113885e+00 1.544739986377e+00 1.541111971516e+00 1.536945170559e+00 1.532260606854e+00 1.527075275582e+00 1.521411302786e+00 1.515289945048e+00 1.508733876322e+00 1.501767946232e+00 1.494414844445e+00 1.486702332016e+00 1.478652622683e+00 1.470295716377e+00 1.461652915665e+00 1.452755815997e+00 1.443624442277e+00 1.434291388040e+00 1.424775110966e+00 1.415108663850e+00 1.405308728341e+00 1.395408344763e+00 1.385422290388e+00 1.375383192883e+00 1.365303873362e+00 1.355216219029e+00 1.345131112812e+00 1.335079443817e+00 1.325070235576e+00 1.315133187023e+00 1.305275591584e+00 1.295525825151e+00 1.285889619894e+00 1.276393947454e+00 1.267043176189e+00 1.257862835765e+00 1.248856146258e+00 1.240047192716e+00 1.231438270856e+00 1.223052045213e+00 1.214890110813e+00 1.206973754501e+00 1.199304086495e+00 1.191901069884e+00 1.184765531767e+00 1.177916169381e+00 1.171353708806e+00 1.165095636633e+00 1.159142735869e+00 1.153511328669e+00 1.148202384825e+00 1.143231093278e+00 1.138598708778e+00 1.134319297442e+00 1.130394462018e+00 1.126837129659e+00 1.123649275600e+00 1.120842639971e+00 1.118419553448e+00 1.116390485009e+00 1.114758061087e+00 1.113531359186e+00 1.112713204983e+00 1.112311141910e+00 1.112328100174e+00 1.112769995540e+00 1.113639782960e+00 1.114941523201e+00 1.116677897208e+00 1.118850771763e+00 1.121462250175e+00 1.124511680614e+00 1.128000282411e+00 1.131924563243e+00 1.136284553117e+00 1.141073612829e+00 1.146290293031e+00 1.151924534466e+00 1.157973149882e+00 1.164422437817e+00 1.171267260727e+00 1.178490119075e+00 1.186083770037e+00 1.194026837556e+00 1.202309882794e+00 1.210907658685e+00 1.219808506558e+00 1.228983400351e+00 1.238418504295e+00 1.248081191781e+00 1.257955557565e+00 1.268005638436e+00 1.278213630942e+00 1.288540584284e+00 1.298967031993e+00 1.309451470504e+00 1.319973071500e+00 1.330488300827e+00 1.340975338422e+00 1.351389230181e+00 1.361707605606e+00 1.371884788489e+00 1.381898369931e+00 1.391702731020e+00 1.401276001931e+00 1.410573470151e+00 1.419574436182e+00 1.428235993511e+00 1.436539279086e+00 1.444444115611e+00 1.451934151365e+00 1.458972851129e+00 1.465547025697e+00 1.471624644690e+00 1.477196271491e+00 1.482235149324e+00 1.486736082060e+00 1.490678214178e+00 1.494060930994e+00 1.496869713097e+00 1.499108669083e+00 1.500769794814e+00 1.501861794545e+00 1.502383013949e+00 1.502346241055e+00 1.501755569016e+00 1.500627089166e+00 1.498969993634e+00 1.496803064905e+00 1.494140057864e+00 1.491001846690e+00 1.487406133834e+00 1.483375242844e+00 1.478930142425e+00 1.474093941868e+00 1.468890158372e+00 1.463342033134e+00 1.457474911557e+00 1.451311553607e+00 1.444878441710e+00 1.438197308179e+00 1.431295136282e+00 1.424192169957e+00 1.416915330953e+00 1.409483011184e+00 1.401921593916e+00 1.394247356575e+00 1.386485757233e+00 1.378650795350e+00 1.370766706509e+00 1.362845140445e+00 1.354908897112e+00 1.346967285598e+00 1.339041532817e+00 1.331138683990e+00 1.323278321000e+00 1.315465355531e+00 1.307717706718e+00 1.300038322478e+00 1.292443484627e+00 1.284934373255e+00 1.277525690978e+00 1.270217060293e+00 1.263021686080e+00 1.255937847628e+00 1.248977348853e+00 1.242137336142e+00 1.235428317921e+00 1.228846507521e+00 1.222401226819e+00 1.216087940891e+00 1.209914893492e+00 1.203876968164e+00 1.197981435556e+00 1.192222744630e+00 1.186607292551e+00 1.181129220267e+00 1.175794144399e+00 1.170596004311e+00 1.165539721602e+00 1.160619121192e+00 1.155838507435e+00 1.151191659942e+00 1.146682335806e+00 1.142304322037e+00 1.138060890805e+00 1.133945874517e+00 1.129962115410e+00 1.126103516362e+00 1.122372537712e+00 1.118763166739e+00 1.115277523422e+00 1.111909683958e+00 1.108661463529e+00 1.105527023990e+00 1.102507905877e+00 1.099598347208e+00 1.096799639209e+00 1.094106081746e+00 1.091518737882e+00 1.089031951488e+00 1.086646575072e+00 1.084356976318e+00 1.082163811890e+00 1.080061451793e+00 1.078050369335e+00 1.076124914972e+00 1.074285389571e+00 1.072526102617e+00 1.070847192507e+00 1.069242907503e+00 1.067713233177e+00 1.066252338102e+00 1.064860064929e+00 1.063530486412e+00 1.062263312989e+00 1.061052508276e+00 1.059897662544e+00 1.058792620199e+00 1.057736865212e+00 1.056724116372e+00 1.055753767538e+00 1.054819409534e+00 1.053920365103e+00 1.053050099257e+00 1.052207885935e+00 1.051387071465e+00 1.050586907153e+00 1.049800633301e+00 1.049027509225e+00 1.048260688023e+00 1.047499472821e+00 1.046736955300e+00 1.045972524164e+00 1.045199243344e+00 1.044416635839e+00 1.043617780524e+00 1.042802391496e+00 1.041963615640e+00 1.041101424415e+00 1.040209097721e+00 1.039286941661e+00 1.038328447878e+00 1.037334347197e+00 1.036298437437e+00 1.035221978972e+00 1.034099188067e+00 1.032931976351e+00 1.031715110915e+00 1.030451295458e+00 1.029136002699e+00 1.027772890562e+00 1.026358316833e+00 1.024897079235e+00 1.023386626560e+00 1.021833106903e+00 1.020235293664e+00 1.018600921595e+00 1.016930349928e+00 1.015233161323e+00 1.013511587945e+00 1.011777344348e+00 1.010034848039e+00 1.008298268948e+00 1.006574671744e+00 1.004881804869e+00 1.003234461230e+00 1.001681908642e+00 1.000000000000e+00 1.000000000000e+00 1.000000000000e+00 1.000000000000e+00 
1.000000000000e+00 1.000082240510e+00 1.000328485758e+00 1.000740252428e+00 1.001317060161e+00 1.002060702142e+00 1.002970912664e+00 1.004049719775e+00 1.005297053929e+00 1.006715150142e+00 1.008304089353e+00 1.010066271083e+00 1.012001868468e+00 1.014113390680e+00 1.016401032243e+00 1.018867344653e+00 1.021512460545e+00 1.024338894160e+00 1.027346620914e+00 1.030538026588e+00 1.033912822877e+00 1.037473165423e+00 1.041218385996e+00 1.045150299740e+00 1.049267734819e+00 1.053572049448e+00 1.058061440084e+00 1.062736689040e+00 1.067595232576e+00 1.072637160076e+00 1.077859023742e+00 1.083260110406e+00 1.088835974902e+00 1.094585005615e+00 1.100501663921e+00 1.106583364512e+00 1.112823403531e+00 1.119218174528e+00 1.125759768018e+00 1.132443543588e+00 1.139260383542e+00 1.146204641192e+00 1.153266030954e+00 1.160437972252e+00 1.167709097900e+00 1.175072012309e+00 1.182514399254e+00 1.190028212274e+00 1.197600362035e+00 1.205222356005e+00 1.212880544654e+00 1.220566226771e+00 1.228265432828e+00 1.235969511729e+00 1.243664428949e+00 1.251341850151e+00 1.258987931310e+00 1.266594914493e+00 1.274149387281e+00 1.281644406015e+00 1.289067202497e+00 1.296411850096e+00 1.303666397003e+00 1.310826090578e+00 1.317879918408e+00 1.324824405907e+00 1.331649549116e+00 1.338353199584e+00 1.344926376273e+00 1.351368249872e+00 1.357670825364e+00 1.363834534942e+00 1.369852287793e+00 1.375725676463e+00 1.381448396357e+00 1.387023064608e+00 1.392444018740e+00 1.397714739737e+00 1.402830047429e+00 1.407794110527e+00 1.412602065621e+00 1.417258586466e+00 1.421758964131e+00 1.426108195876e+00 1.430301575943e+00 1.434344251072e+00 1.438231384649e+00 1.441968111458e+00 1.445549352218e+00 1.448980084794e+00 1.452254901375e+00 1.455378497302e+00 1.458345078990e+00 1.461158955111e+00 1.463813919445e+00 1.466313812762e+00 1.468652020720e+00 1.470831858773e+00 1.472846340570e+00 1.474698223070e+00 1.476380215109e+00 1.477894506036e+00 1.479233596799e+00 1.480399123298e+00 1.481383502917e+00 1.482187853903e+00 1.482804658333e+00 1.483234571598e+00 1.483470308338e+00 1.483512134001e+00 1.483353189142e+00 1.482993462805e+00 1.482426750824e+00 1.481652880568e+00 1.480666507913e+00 1.479467404880e+00 1.478051290494e+00 1.476417992656e+00 1.474564491945e+00 1.472490782340e+00 1.470195290937e+00 1.467678281402e+00 1.464939792388e+00 1.461980449590e+00 1.458802042216e+00 1.455405634956e+00 1.451794875569e+00 1.447971326253e+00 1.443940566609e+00 1.439704694373e+00 1.435271257277e+00 1.430642905324e+00 1.425829152851e+00 1.420833197936e+00 1.415666482862e+00 1.410332730191e+00 1.404845236351e+00 1.399208207906e+00 1.393436689653e+00 1.387535318040e+00 1.381520752518e+00 1.375397995454e+00 1.369185163916e+00 1.362887556386e+00 1.356524572106e+00 1.350101734041e+00 1.343639534644e+00 1.337143651656e+00 1.330635472907e+00 1.324120766437e+00 1.317621612906e+00 1.311143814136e+00 1.304709939911e+00 1.298325779294e+00 1.292014189132e+00 1.285780910469e+00 1.279648888826e+00 1.273623793778e+00 1.267728466037e+00 1.261968491872e+00 1.256366419077e+00 1.250927749488e+00 1.245674555011e+00 1.240612261066e+00 1.235762284931e+00 1.231129990590e+00 1.226735964680e+00 1.222585528846e+00 1.218698263686e+00 1.215079468235e+00 1.211747539552e+00 1.208707770143e+00 1.205977190510e+00 1.203561093910e+00 1.201474951619e+00 1.199724050138e+00 1.198322094912e+00 1.197274338422e+00 1.196592500297e+00 1.196281760017e+00 1.196351648097e+00 1.196807271679e+00 1.197655811561e+00 1.198902251113e+00 1.200551151875e+00 1.202607224008e+00 1.205072112161e+00 1.207950080124e+00 1.211239554668e+00 1.214944155804e+00 1.219058790437e+00 1.223586214816e+00 1.228517520621e+00 1.233854364213e+00 1.239583745109e+00 1.245705977693e+00 1.252203725784e+00 1.259075726965e+00 1.266300116587e+00 1.273873843441e+00 1.281770391256e+00 1.289984747916e+00 1.298485711243e+00 1.307266193472e+00 1.316290379473e+00 1.325549065178e+00 1.335002018820e+00 1.344637968074e+00 1.354412596598e+00 1.364312711704e+00 1.374290387542e+00 1.384330765196e+00 1.394382928267e+00 1.404430712514e+00 1.414420967386e+00 1.424336684892e+00 1.434123359826e+00 1.443763689590e+00 1.453202794657e+00 1.462423694571e+00 1.471372186961e+00 1.480032271676e+00 1.488351510029e+00 1.496315550448e+00 1.503874798513e+00 1.511017194642e+00 1.517697019208e+00 1.523905086251e+00 1.529600486145e+00 1.534777389290e+00 1.539400491585e+00 1.543467668132e+00 1.546949834849e+00 1.549848753813e+00 1.552141959198e+00 1.553835092979e+00 1.554912469703e+00 1.555383420862e+00 1.555239018221e+00 1.554492037712e+00 1.553140183216e+00 1.551199259129e+00 1.548673206836e+00 1.545580330455e+00 1.541930329576e+00 1.537743462745e+00 1.533034635890e+00 1.527825501940e+00 1.522135557942e+00 1.515987287778e+00 1.509404118199e+00 1.502408814118e+00 1.495028046452e+00 1.487284343331e+00 1.479206933289e+00 1.470817639347e+00 1.462147581771e+00 1.453217474020e+00 1.444059701578e+00 1.434693538141e+00 1.425152062077e+00 1.415452857340e+00 1.405629187564e+00 1.395696778847e+00 1.385688643485e+00 1.375618561161e+00 1.365518929663e+00 1.355401567658e+00 1.345297967708e+00 1.335218038684e+00 1.325192145979e+00 1.315228395832e+00 1.305355867520e+00 1.295581016920e+00 1.285931534040e+00 1.276412410644e+00 1.267049892042e+00 1.257847715242e+00 1.248830664686e+00 1.240001444907e+00 1.231383394075e+00 1.222978410253e+00 1.214808422423e+00 1.206874743806e+00 1.199197945915e+00 1.191778967441e+00 1.184637081385e+00 1.177773045063e+00 1.171204892271e+00 1.164933370040e+00 1.158975326180e+00 1.153331642311e+00 1.148018021314e+00 1.143035594398e+00 1.138398942584e+00 1.134109528388e+00 1.130180810379e+00 1.126614627494e+00 1.123423286135e+00 1.120609007026e+00 1.118182880834e+00 1.116147473613e+00 1.114512560603e+00 1.113280976897e+00 1.112461052075e+00 1.112055789136e+00 1.112071937755e+00 1.112512572262e+00 1.113382705765e+00 1.114685286014e+00 1.116423296303e+00 1.118599261436e+00 1.121213806864e+00 1.124268725007e+00 1.127761953593e+00 1.131694239508e+00 1.136060511720e+00 1.140860167147e+00 1.146084830525e+00 1.151732269313e+00 1.157790552710e+00 1.164255580288e+00 1.171111675665e+00 1.178352686448e+00 1.185959075189e+00 1.193922516652e+00 1.202219579781e+00 1.210839712848e+00 1.219755645186e+00 1.228954612210e+00 1.238405644232e+00 1.248093842511e+00 1.257984763860e+00 1.268061516701e+00 1.278286493291e+00 1.288641012106e+00 1.299084693045e+00 1.309597330260e+00 1.320136248130e+00 1.330680047882e+00 1.341184321879e+00 1.351626879162e+00 1.361962231194e+00 1.372167866944e+00 1.382197953367e+00 1.392030201120e+00 1.401619246582e+00 1.410943625999e+00 1.419959321883e+00 1.428646347493e+00 1.436962948350e+00 1.444891291456e+00 1.452392812022e+00 1.459452503496e+00 1.466035890168e+00 1.472131425377e+00 1.477709552433e+00 1.482762739269e+00 1.487267063124e+00 1.491219439858e+00 1.494602131892e+00 1.497416767894e+00 1.499652127781e+00 1.501314590237e+00 1.502399490452e+00 1.502917672587e+00 1.502870638536e+00 1.502272938682e+00 1.501131457825e+00 1.499463724750e+00 1.497281482246e+00 1.494604671996e+00 1.491449319198e+00 1.487837154537e+00 1.483787827210e+00 1.479324194235e+00 1.474468815925e+00 1.469245006065e+00 1.463677504052e+00 1.457789437281e+00 1.451607007427e+00 1.445152568242e+00 1.438453111551e+00 1.431529708981e+00 1.424409537636e+00 1.417111972452e+00 1.409663853257e+00 1.402082545124e+00 1.394394118234e+00 1.386613716543e+00 1.378766299959e+00 1.370864676746e+00 1.362932444122e+00 1.354980047208e+00 1.347029548978e+00 1.339089078623e+00 1.331179064402e+00 1.323305427431e+00 1.315486920778e+00 1.307727411564e+00 1.300043985780e+00 1.292438642965e+00 1.284926847750e+00 1.277508938152e+00 1.270198830749e+00 1.262995416683e+00 1.255911156617e+00 1.248943708874e+00 1.242104181854e+00 1.235389207261e+00 1.228808650487e+00 1.222358309564e+00 1.216046917175e+00 1.209869613633e+00 1.203834106875e+00 1.197935036194e+00 1.192179188022e+00 1.186560837004e+00 1.181085945005e+00 1.175748537967e+00 1.170553842866e+00 1.165495733057e+00 1.160578782562e+00 1.155796789569e+00 1.151153749174e+00 1.146643444590e+00 1.142269358194e+00 1.138025302866e+00 1.133914306888e+00 1.129930243671e+00 1.126075738812e+00 1.122344745129e+00 1.118739530168e+00 1.115254134807e+00 1.111890506895e+00 1.108642775494e+00 1.105512601384e+00 1.102494194979e+00 1.099588957485e+00 1.096791168367e+00 1.094101992232e+00 1.091515761173e+00 1.089033422298e+00 1.086649341016e+00 1.084364262817e+00 1.082172565335e+00 1.080074805766e+00 1.078065352075e+00 1.076144584601e+00 1.074306839821e+00 1.072552331409e+00 1.070875343372e+00 1.069275932297e+00 1.067748310246e+00 1.066292386275e+00 1.064902283113e+00 1.063577772396e+00 1.062312872716e+00 1.061107229480e+00 1.059954745382e+00 1.058854952384e+00 1.057801628967e+00 1.056794208505e+00 1.055826340805e+00 1.054897378061e+00 1.054000841205e+00 1.053136021703e+00 1.052296316119e+00 1.051480979201e+00 1.050683292862e+00 1.049902503269e+00 1.049131793206e+00 1.048370433164e+00 1.047611528828e+00 1.046854413433e+00 1.046092144957e+00 1.045324164191e+00 1.044543519196e+00 1.043749810581e+00 1.042936123905e+00 1.042102280552e+00 1.041241462083e+00 1.040353781763e+00 1.039432588403e+00 1.038478370079e+00 1.037484728729e+00 1.036452623850e+00 1.035376013074e+00 1.034256439664e+00 1.033088338435e+00 1.031873966702e+00 1.030608379214e+00 1.029294697865e+00 1.027928763680e+00 1.026514736158e+00 1.025049434701e+00 1.023538253902e+00 1.021979211072e+00 1.020379159192e+00 1.018737561218e+00 1.017062977825e+00 1.015356592881e+00 1.013628948637e+00 1.011883250479e+00 1.010132320575e+00 1.008381728933e+00 1.006647027013e+00 1.004937305869e+00 1.003275974814e+00 1.001703955280e+00 1.000000000000e+00 1.000000000000e+00 1.000000000000e+00 1.000000000000e+00 