# vtk DataFile Version 3.0
Vortex Output
ASCII
DATASET STRUCTURED_POINTS
FIELD FieldData 2
TIME 1 1 double
5.001968
CYCLE 1 1 int
1026
DIMENSIONS 258 66 1
ORIGIN 0 0 0
SPACING 1 1 1
POINT_DATA 17028
SCALARS u double 1
LOOKUP_TABLE default
1.000356469576e+00 1.000356469576e+00 1.001427586142e+00 1.003216542959e+00 1.005728899330e+00 1.008971319659e+00 1.012952332380e+00 1.017680768428e+00 1.023166358284e+00 1.029417882322e+00 1.036443640788e+00 1.044249302850e+00 1.052838310242e+00 1.062209444090e+00 1.072357270414e+00 1.083269496588e+00 1.094927632363e+00 1.107304273466e+00 1.120364221194e+00 1.134061888794e+00 1.148343167604e+00 1.163143168005e+00 1.178389100883e+00 1.193998499759e+00 1.209883268688e+00 1.225948365288e+00 1.242096950618e+00 1.258229273763e+00 1.274248607015e+00 1.290059853385e+00 1.305575774722e+00 1.320714763093e+00 1.335406874195e+00 1.349590329388e+00 1.363217066110e+00 1.376247822887e+00 1.388657211107e+00 1.400427541215e+00 1.411553655773e+00 1.422035846426e+00 1.431884771213e+00 1.441113843405e+00 1.449744493131e+00 1.457798327596e+00 1.465302861331e+00 1.472283632900e+00 1.478770395043e+00 1.484789284890e+00 1.490369375880e+00 1.495534957077e+00 1.500312308515e+00 1.504722142897e+00 1.508786461428e+00 1.512521229861e+00 1.515943185893e+00 1.519062844385e+00 1.521891146735e+00 1.524432905564e+00 1.526693203066e+00 1.528671386667e+00 1.530367132661e+00 1.531775087604e+00 1.532890513360e+00 1.533704632698e+00 1.534209760346e+00 1.534395353938e+00 1.534252551085e+00 1.533771257540e+00 1.532943982388e+00 1.531763280058e+00 1.530224962561e+00 1.528326134728e+00 1.526067703531e+00 1.523452885195e+00 1.520489039577e+00 1.517186521403e+00 1.513559915676e+00 1.509627100259e+00 1.505410015687e+00 1.500933803549e+00 1.496227286507e+00 1.491322036420e+00 1.486252770252e+00 1.481056190635e+00 1.475771521186e+00 1.470438951636e+00 1.465100542761e+00 1.459798102393e+00 1.454574687649e+00 1.449471739436e+00 1.444531398451e+00 1.439792735169e+00 1.435295076655e+00 1.431073186755e+00 1.427161773131e+00 1.423589497529e+00 1.420384796253e+00 1.417568630995e+00 1.415161711034e+00 1.413175929134e+00 1.411623020622e+00 1.410504665261e+00 1.409822561422e+00 1.409567229779e+00 1.409729584090e+00 1.410288867178e+00 1.411225353921e+00 1.412506986442e+00 1.414103366043e+00 1.415971705862e+00 1.418071899607e+00 1.420352006653e+00 1.422764148295e+00 1.425249781528e+00 1.427756123268e+00 1.430221465756e+00 1.432591764200e+00 1.434806221383e+00 1.436813610842e+00 1.438558320079e+00 1.439995929401e+00 1.441079861499e+00 1.441775711531e+00 1.442048653092e+00 1.441876256474e+00 1.441237326381e+00 1.440122594123e+00 1.438524491311e+00 1.436445896823e+00 1.433891645849e+00 1.430875124897e+00 1.427411730952e+00 1.423523211438e+00 1.419233280894e+00 1.414569669351e+00 1.409562050549e+00 1.404241803344e+00 1.398642333856e+00 1.392796585080e+00 1.386739758737e+00 1.380504637270e+00 1.374126640033e+00 1.367637053792e+00 1.361070297418e+00 1.354455191883e+00 1.347824258989e+00 1.341203197028e+00 1.334622001382e+00 1.328102844269e+00 1.321672777014e+00 1.315350239050e+00 1.309159082268e+00 1.303113954101e+00 1.297235373102e+00 1.291534242868e+00 1.286027704407e+00 1.280723041830e+00 1.275634040740e+00 1.270764543369e+00 1.266125052526e+00 1.261716183771e+00 1.257545270555e+00 1.253609944916e+00 1.249914520381e+00 1.246453911413e+00 1.243229595398e+00 1.240234055775e+00 1.237466151861e+00 1.234916242373e+00 1.232580820989e+00 1.230448446953e+00 1.228513534059e+00 1.226763184427e+00 1.225190048163e+00 1.223780126179e+00 1.222524646335e+00 1.221408872352e+00 1.220422969062e+00 1.219551827846e+00 1.218784918118e+00 1.218107115920e+00 1.217507560513e+00 1.216971452267e+00 1.216487951829e+00 1.216042896511e+00 1.215625794784e+00 1.215223397124e+00 1.214825850404e+00 1.214421049649e+00 1.214000025324e+00 1.213551996536e+00 1.213069069461e+00 1.212541910040e+00 1.211963834025e+00 1.211327017879e+00 1.210626060431e+00 1.209854654038e+00 1.209008694936e+00 1.208083342258e+00 1.207075749069e+00 1.205982444079e+00 1.204801748401e+00 1.203531423208e+00 1.202170828866e+00 1.200718790940e+00 1.199175548927e+00 1.197540802580e+00 1.195815487453e+00 1.193999973132e+00 1.192095692673e+00 1.190103473745e+00 1.188025039168e+00 1.185861460920e+00 1.183614539725e+00 1.181285380166e+00 1.178875648916e+00 1.176386276581e+00 1.173818587008e+00 1.171173137821e+00 1.168450707399e+00 1.165651291289e+00 1.162774929103e+00 1.159820878004e+00 1.156788259040e+00 1.153675431715e+00 1.150480438272e+00 1.147200605043e+00 1.143832763962e+00 1.140373107116e+00 1.136817167400e+00 1.133159952618e+00 1.129395671783e+00 1.125518174584e+00 1.121520416370e+00 1.117395228138e+00 1.113134521834e+00 1.108730415542e+00 1.104174191380e+00 1.099457800645e+00 1.094572599120e+00 1.089511257805e+00 1.084266314617e+00 1.078832517945e+00 1.073205248927e+00 1.067383327117e+00 1.061367372740e+00 1.055163105518e+00 1.048779730254e+00 1.042233760474e+00 1.035547522761e+00 1.028753543353e+00 1.021893386368e+00 1.015024276367e+00 1.008242273783e+00 1.000000000000e+00 1.000000000000e+00 1.000000000000e+00 1.000000000000e+00 
1.000000000000e+00 1.000356469576e+00 1.001427586142e+00 1.003216542959e+00 1.005728899330e+00 1.008971319659e+00 1.012952332380e+00 1.017680768428e+00 1.023166358284e+00 1.029417882322e+00 1.036443640788e+00 1.044249302850e+00 1.052838310242e+00 1.062209444090e+00 1.072357270414e+00 1.083269496588e+00 1.094927632363e+00 1.107304273466e+00 1.120364221194e+00 1.134061888794e+00 1.148343167604e+00 1.163143168005e+00 1.178389100883e+00 1.193998499759e+00 1.209883268688e+00 1.225948365288e+00 1.242096950618e+00 1.258229273763e+00 1.274248607015e+00 1.290059853385e+00 1.305575774722e+00 1.320714763093e+00 1.335406874195e+00 1.349590329388e+00 1.363217066110e+00 1.376247822887e+00 1.388657211107e+00 1.400427541215e+00 1.411553655773e+00 1.422035846426e+00 1.431884771213e+00 1.441113843405e+00 1.449744493131e+00 1.457798327596e+00 1.465302861331e+00 1.472283632900e+00 1.478770395043e+00 1.484789284890e+00 1.490369375880e+00 1.495534957077e+00 1.500312308515e+00 1.504722142897e+00 1.508786461428e+00 1.512521229861e+00 1.515943185893e+00 1.519062844385e+00 1.521891146735e+00 1.524432905564e+00 1.526693203066e+00 1.528671386667e+00 1.530367132661e+00 1.531775087604e+00 1.532890513360e+00 1.533704632698e+00 1.534209760346e+00 1.534395353938e+00 1.534252551085e+00 1.533771257540e+00 1.532943982388e+00 1.531763280058e+00 1.530224962561e+00 1.528326134728e+00 1.526067703531e+00 1.523452885195e+00 1.520489039577e+00 1.517186521403e+00 1.513559915676e+00 1.509627100259e+00 1.505410015687e+00 1.500933803549e+00 1.496227286507e+00 1.491322036420e+00 1.486252770252e+00 1.481056190635e+00 1.475771521186e+00 1.470438951636e+00 1.465100542761e+00 1.459798102393e+00 1.454574687649e+00 1.449471739436e+00 1.444531398451e+00 1.439792735169e+00 1.435295076655e+00 1.431073186755e+00 1.427161773131e+00 1.423589497529e+00 1.420384796253e+00 1.417568630995e+00 1.415161711034e+00 1.413175929134e+00 1.411623020622e+00 1.410504665261e+00 1.409822561422e+00 1.409567229779e+00 1.409729584090e+00 1.410288867178e+00 1.411225353921e+00 1.412506986442e+00 1.414103366043e+00 1.415971705862e+00 1.418071899607e+00 1.420352006653e+00 1.422764148295e+00 1.425249781528e+00 1.427756123268e+00 1.430221465756e+00 1.432591764200e+00 1.434806221383e+00 1.436813610842e+00 1.438558320079e+00 1.439995929401e+00 1.441079861499e+00 1.441775711531e+00 1.442048653092e+00 1.441876256474e+00 1.441237326381e+00 1.440122594123e+00 1.438524491311e+00 1.436445896823e+00 1.433891645849e+00 1.430875124897e+00 1.427411730952e+00 1.423523211438e+00 1.419233280894e+00 1.414569669351e+00 1.409562050549e+00 1.404241803344e+00 1.398642333856e+00 1.392796585080e+00 1.386739758737e+00 1.380504637270e+00 1.374126640033e+00 1.367637053792e+00 1.361070297418e+00 1.354455191883e+00 1.347824258989e+00 1.341203197028e+00 1.334622001382e+00 1.328102844269e+00 1.321672777014e+00 1.315350239050e+00 1.309159082268e+00 1.303113954101e+00 1.297235373102e+00 1.291534242868e+00 1.286027704407e+00 1.280723041830e+00 1.275634040740e+00 1.270764543369e+00 1.266125052526e+00 1.261716183771e+00 1.257545270555e+00 1.253609944916e+00 1.249914520381e+00 1.246453911413e+00 1.243229595398e+00 1.240234055775e+00 1.237466151861e+00 1.234916242373e+00 1.232580820989e+00 1.230448446953e+00 1.228513534059e+00 1.226763184427e+00 1.225190048163e+00 1.223780126179e+00 1.222524646335e+00 1.221408872352e+00 1.220422969062e+00 1.219551827846e+00 1.218784918118e+00 1.218107115920e+00 1.217507560513e+00 1.216971452267e+00 1.216487951829e+00 1.216042896511e+00 1.215625794784e+00 1.215223397124e+00 1.214825850404e+00 1.214421049649e+00 1.214000025324e+00 1.213551996536e+00 1.213069069461e+00 1.212541910040e+00 1.211963834025e+00 1.211327017879e+00 1.210626060431e+00 1.209854654038e+00 1.209008694936e+00 1.208083342258e+00 1.207075749069e+00 1.205982444079e+00 1.204801748401e+00 1.203531423208e+00 1.202170828866e+00 1.200718790940e+00 1.199175548927e+00 1.197540802580e+00 1.195815487453e+00 1.193999973132e+00 1.192095692673e+00 1.190103473745e+00 1.188025039168e+00 1.185861460920e+00 1.183614539725e+00 1.181285380166e+00 1.178875648916e+00 1.176386276581e+00 1.173818587008e+00 1.171173137821e+00 1.168450707399e+00 1.165651291289e+00 1.162774929103e+00 1.159820878004e+00 1.156788259040e+00 1.153675431715e+00 1.150480438272e+00 1.147200605043e+00 1.143832763962e+00 1.140373107116e+00 1.136817167400e+00 1.133159952618e+00 1.129395671783e+00 1.125518174584e+00 1.121520416370e+00 1.117395228138e+00 1.113134521834e+00 1.108730415542e+00 1.104174191380e+00 1.099457800645e+00 1.094572599120e+00 1.089511257805e+00 1.084266314617e+00 1.078832517945e+00 1.073205248927e+00 1.067383327117e+00 1.061367372740e+00 1.055163105518e+00 1.048779730254e+00 1.042233760474e+00 1.035547522761e+00 1.028753543353e+00 1.021893386368e+00 1.015024276367e+00 1.008242273783e+00 1.000000000000e+00 1.000000000000e+00 1.000000000000e+00 1.000000000000e+00 
1.000000000000e+00 1.000356112777e+00 1.001425587653e+00 1.003212183940e+00 1.005721134426e+00 1.008959976216e+00 1.012937118665e+00 1.017662521566e+00 1.023145983316e+00 1.029397671626e+00 1.036426105965e+00 1.044238580591e+00 1.052838835912e+00 1.062227450557e+00 1.072399240047e+00 1.083343754057e+00 1.095042505098e+00 1.107469782408e+00 1.120589885931e+00 1.134358538830e+00 1.148720354391e+00 1.163611157499e+00 1.178955901079e+00 1.194672146812e+00 1.210668531952e+00 1.226849481983e+00 1.243114102206e+00 1.259361925326e+00 1.275491828740e+00 1.291408358906e+00 1.307020084238e+00 1.322245925362e+00 1.337012370537e+00 1.351259360955e+00 1.364936041815e+00 1.378006052914e+00 1.390441844219e+00 1.402229539051e+00 1.413362129275e+00 1.423844254501e+00 1.433684700300e+00 1.442901427360e+00 1.451513742118e+00 1.459547778501e+00 1.467028583165e+00 1.473986095075e+00 1.480447271038e+00 1.486442489525e+00 1.491997775908e+00 1.497141495237e+00 1.501896720218e+00 1.506288062267e+00 1.510334240096e+00 1.514054909505e+00 1.517463516154e+00 1.520574005726e+00 1.523394066460e+00 1.525931622051e+00 1.528188579244e+00 1.530167020474e+00 1.531863564478e+00 1.533275181208e+00 1.534394246841e+00 1.535213899410e+00 1.535723826542e+00 1.535915076659e+00 1.535776575745e+00 1.535299414576e+00 1.534474075906e+00 1.533293959215e+00 1.531753217412e+00 1.529849580124e+00 1.527582705654e+00 1.524956309009e+00 1.521976905370e+00 1.518655298300e+00 1.515005582124e+00 1.511046100352e+00 1.506798572968e+00 1.502288685529e+00 1.497545200822e+00 1.492600374751e+00 1.487488900961e+00 1.482248372178e+00 1.476917894846e+00 1.471538825133e+00 1.466152882296e+00 1.460803389384e+00 1.455532712090e+00 1.450384226260e+00 1.445398914897e+00 1.440618268385e+00 1.436079886810e+00 1.431821494687e+00 1.427875418331e+00 1.424273864551e+00 1.421042171906e+00 1.418205461930e+00 1.415780596444e+00 1.413784260216e+00 1.412223592142e+00 1.411105702550e+00 1.410426990257e+00 1.410184066835e+00 1.410361935992e+00 1.410946285658e+00 1.411910511574e+00 1.413229221082e+00 1.414864423961e+00 1.416780172969e+00 1.418928184241e+00 1.421263409391e+00 1.423729349026e+00 1.426274290640e+00 1.428836580400e+00 1.431361195387e+00 1.433785219316e+00 1.436054350803e+00 1.438108792827e+00 1.439899239199e+00 1.441373344333e+00 1.442490690034e+00 1.443209969896e+00 1.443502455212e+00 1.443340056656e+00 1.442707058503e+00 1.441589390834e+00 1.439984231557e+00 1.437890821446e+00 1.435317930093e+00 1.432276511505e+00 1.428784932111e+00 1.424863697446e+00 1.420538391560e+00 1.415836657882e+00 1.410788845352e+00 1.405427360126e+00 1.399785045511e+00 1.393896942893e+00 1.387796459214e+00 1.381519499506e+00 1.375098504711e+00 1.368568852130e+00 1.361960879630e+00 1.355308396678e+00 1.348638846286e+00 1.341983727532e+00 1.335367080542e+00 1.328817589908e+00 1.322355607412e+00 1.316006683230e+00 1.309787363899e+00 1.303719883888e+00 1.297816991435e+00 1.292097526518e+00 1.286570534516e+00 1.281251457462e+00 1.276145795154e+00 1.271265644351e+00 1.266613159575e+00 1.262197188823e+00 1.258016772557e+00 1.254077643658e+00 1.250375983856e+00 1.246914579025e+00 1.243687028540e+00 1.240693373526e+00 1.237924927465e+00 1.235379223601e+00 1.233045605702e+00 1.230919370450e+00 1.228988226767e+00 1.227245538762e+00 1.225677731520e+00 1.224276569203e+00 1.223027555689e+00 1.221921209993e+00 1.220942482529e+00 1.220081015477e+00 1.219321570425e+00 1.218653284198e+00 1.218061081758e+00 1.217533957882e+00 1.217057330808e+00 1.216620396778e+00 1.216209365176e+00 1.215813946138e+00 1.215421396924e+00 1.215022212571e+00 1.214604905870e+00 1.214160977510e+00 1.213680348196e+00 1.213155688131e+00 1.212578419259e+00 1.211942484508e+00 1.211240840481e+00 1.210468744958e+00 1.209620665131e+00 1.208693157621e+00 1.207682124012e+00 1.206585351463e+00 1.205400055304e+00 1.204125140474e+00 1.202758979897e+00 1.201301447909e+00 1.199751892569e+00 1.198110982416e+00 1.196378840492e+00 1.194556735637e+00 1.192645355506e+00 1.190646363570e+00 1.188560797568e+00 1.186390503822e+00 1.184136656127e+00 1.181801070217e+00 1.179384845850e+00 1.176889556576e+00 1.174316024532e+00 1.171665374259e+00 1.168937955365e+00 1.166134244154e+00 1.163253933808e+00 1.160296664140e+00 1.157261302205e+00 1.154146478740e+00 1.150950084178e+00 1.147669590328e+00 1.144301787780e+00 1.140842873156e+00 1.137288454042e+00 1.133633385808e+00 1.129872069707e+00 1.125998028871e+00 1.122004524428e+00 1.117883867893e+00 1.113628379411e+00 1.109229443416e+00 1.104678832792e+00 1.099967526338e+00 1.095087423073e+00 1.090029953539e+00 1.084788209804e+00 1.079355397566e+00 1.073727409509e+00 1.067901180760e+00 1.061877735555e+00 1.055660523602e+00 1.049258971580e+00 1.042686890965e+00 1.035966566477e+00 1.029127345013e+00 1.022210411466e+00 1.015269357041e+00 1.008399834989e+00 1.000000000000e+00 1.000000000000e+00 1.000000000000e+00 1.000000000000e+00 
1.000000000000e+00 1.000354698970e+00 1.001420436800e+00 1.003200698465e+00 1.005701705107e+00 1.008931122826e+00 1.012898822020e+00 1.017615306402e+00 1.023092312697e+00 1.029340939938e+00 1.036372105245e+00 1.044194343754e+00 1.052814164717e+00 1.062233525096e+00 1.072450179811e+00 1.083454890201e+00 1.095231937741e+00 1.107756209806e+00 1.120994137276e+00 1.134900885577e+00 1.149422053030e+00 1.164491243907e+00 1.180032874040e+00 1.195960356428e+00 1.212180245042e+00 1.228591075737e+00 1.245088815731e+00 1.261566089632e+00 1.277918556340e+00 1.294043931004e+00 1.309848646552e+00 1.325245943396e+00 1.340162163648e+00 1.354533344546e+00 1.368310778346e+00 1.381455949188e+00 1.393945411668e+00 1.405764329566e+00 1.416911039862e+00 1.427389677186e+00 1.437214863530e+00 1.446403890548e+00 1.454981849481e+00 1.462973694032e+00 1.470409928328e+00 1.477318711501e+00 1.483732058206e+00 1.489678043189e+00 1.495187377935e+00 1.500285739081e+00 1.505000557144e+00 1.509353504403e+00 1.513367341604e+00 1.517058631939e+00 1.520444516456e+00 1.523535751573e+00 1.526343309932e+00 1.528871858655e+00 1.531126102813e+00 1.533104824942e+00 1.534806899680e+00 1.536225998772e+00 1.537356205635e+00 1.538187453377e+00 1.538710659371e+00 1.538913915046e+00 1.538787019030e+00 1.538318381717e+00 1.537498969681e+00 1.536319862675e+00 1.534775484006e+00 1.532861725031e+00 1.530578464996e+00 1.527928133042e+00 1.524917541110e+00 1.521556755295e+00 1.517860326137e+00 1.513846339229e+00 1.509537182543e+00 1.504958644709e+00 1.500140403453e+00 1.495115030798e+00 1.489918414453e+00 1.484588515803e+00 1.479165950701e+00 1.473692334341e+00 1.468211252385e+00 1.462766020586e+00 1.457401272941e+00 1.452159965282e+00 1.447085794851e+00 1.442219287216e+00 1.437601241688e+00 1.433267759842e+00 1.429254883444e+00 1.425592449385e+00 1.422310050910e+00 1.419429635919e+00 1.416972877543e+00 1.414952467293e+00 1.413380926539e+00 1.412260580946e+00 1.411593787025e+00 1.411371629717e+00 1.411585555355e+00 1.412214797737e+00 1.413239246901e+00 1.414626040956e+00 1.416343646734e+00 1.418347749892e+00 1.420596371191e+00 1.423035326756e+00 1.425614160243e+00 1.428271451040e+00 1.430951272889e+00 1.433588612613e+00 1.436125993715e+00 1.438499234834e+00 1.440653808035e+00 1.442531121132e+00 1.444084123992e+00 1.445264250617e+00 1.446035751176e+00 1.446363376810e+00 1.446224800377e+00 1.445599193567e+00 1.444477810865e+00 1.442854028149e+00 1.440731844835e+00 1.438117588935e+00 1.435026211845e+00 1.431474938875e+00 1.427487291721e+00 1.423088908028e+00 1.418309277395e+00 1.413179891332e+00 1.407733710913e+00 1.402005727350e+00 1.396030201401e+00 1.389843631920e+00 1.383479831404e+00 1.376975226586e+00 1.370361865119e+00 1.363674912619e+00 1.356943720951e+00 1.350201339685e+00 1.343473812690e+00 1.336791486666e+00 1.330176735760e+00 1.323656823784e+00 1.317250283498e+00 1.310981071252e+00 1.304863846910e+00 1.298919149482e+00 1.293157834961e+00 1.287596998801e+00 1.282243832382e+00 1.277112022598e+00 1.272205283734e+00 1.267533975408e+00 1.263098555962e+00 1.258906176713e+00 1.254954286334e+00 1.251246980805e+00 1.247778966607e+00 1.244551470837e+00 1.241556745416e+00 1.238793369481e+00 1.236251448330e+00 1.233927169400e+00 1.231808819500e+00 1.229890485431e+00 1.228158982386e+00 1.226606619655e+00 1.225219102914e+00 1.223987313775e+00 1.222896220004e+00 1.221935644182e+00 1.221090189514e+00 1.220348997056e+00 1.219696671301e+00 1.219122046806e+00 1.218610077633e+00 1.218149652472e+00 1.217726395471e+00 1.217329583857e+00 1.216945794869e+00 1.216564991312e+00 1.216174940161e+00 1.215766539547e+00 1.215328929055e+00 1.214854136525e+00 1.214332797912e+00 1.213758204280e+00 1.213122550104e+00 1.212420460138e+00 1.211645688734e+00 1.210794203242e+00 1.209861262727e+00 1.208844129356e+00 1.207739462358e+00 1.206545721788e+00 1.205260822085e+00 1.203884284124e+00 1.202415101907e+00 1.200853689287e+00 1.199199922856e+00 1.197454919663e+00 1.195619228898e+00 1.193694466760e+00 1.191681638876e+00 1.189582648604e+00 1.187398740944e+00 1.185131891388e+00 1.182783370230e+00 1.180355010786e+00 1.177847900270e+00 1.175263519143e+00 1.172602570919e+00 1.169865978658e+00 1.167053871132e+00 1.164166418236e+00 1.161202994770e+00 1.158162833912e+00 1.155044392498e+00 1.151845800746e+00 1.148564454388e+00 1.145197239651e+00 1.141740378096e+00 1.138189408469e+00 1.134539309816e+00 1.130784226352e+00 1.126917893656e+00 1.122933099181e+00 1.118822435431e+00 1.114577497272e+00 1.110189985364e+00 1.105650652023e+00 1.100950778202e+00 1.096080892293e+00 1.091032644958e+00 1.085797339684e+00 1.080368231822e+00 1.074738925478e+00 1.068906125906e+00 1.062867973376e+00 1.056627280778e+00 1.050189889762e+00 1.043568426415e+00 1.036780776419e+00 1.029854396517e+00 1.022825124937e+00 1.015743765425e+00 1.008700029610e+00 1.000000000000e+00 1.000000000000e+00 1.000000000000e+00 1.000000000000e+00 
1.000000000000e+00 1.000352572177e+00 1.001411532575e+00 1.003181265532e+00 1.005668164428e+00 1.008881476280e+00 1.012831868436e+00 1.017532117222e+00 1.022995387481e+00 1.029235753652e+00 1.036266144025e+00 1.044098708032e+00 1.052742392567e+00 1.062203203686e+00 1.072481427586e+00 1.083571901845e+00 1.095460973467e+00 1.108126995587e+00 1.121537224035e+00 1.135648873443e+00 1.150406262123e+00 1.165742849543e+00 1.181578983281e+00 1.197825319189e+00 1.214381418839e+00 1.231140745451e+00 1.247990053247e+00 1.264815751828e+00 1.281503585244e+00 1.297945710467e+00 1.314039804394e+00 1.329695974811e+00 1.344834420251e+00 1.359391480410e+00 1.373315379830e+00 1.386571247798e+00 1.399135071968e+00 1.410998044078e+00 1.422159277190e+00 1.432630065264e+00 1.442425999276e+00 1.451571631264e+00 1.460092449488e+00 1.468020180493e+00 1.475384846442e+00 1.482220700128e+00 1.488558421213e+00 1.494431539530e+00 1.499868761988e+00 1.504900694233e+00 1.509552297647e+00 1.513849730613e+00 1.517812974945e+00 1.521462650976e+00 1.524812896033e+00 1.527878042249e+00 1.530665861832e+00 1.533184024560e+00 1.535433839847e+00 1.537416429432e+00 1.539127091812e+00 1.540561132299e+00 1.541708948165e+00 1.542561449911e+00 1.543105913657e+00 1.543330903160e+00 1.543222843288e+00 1.542770195629e+00 1.541960846148e+00 1.540785713463e+00 1.539236635266e+00 1.537309323185e+00 1.535001732085e+00 1.532316293070e+00 1.529258627698e+00 1.525839112205e+00 1.522071810833e+00 1.517975487451e+00 1.513572634713e+00 1.508890103529e+00 1.503958101342e+00 1.498810644799e+00 1.493484386225e+00 1.488019112662e+00 1.482456243911e+00 1.476839608214e+00 1.471213444354e+00 1.465623682969e+00 1.460115281637e+00 1.454734231887e+00 1.449524061604e+00 1.444528771710e+00 1.439788354973e+00 1.435342842944e+00 1.431226713611e+00 1.427474198334e+00 1.424112481436e+00 1.421168378145e+00 1.418660264007e+00 1.416606185756e+00 1.415014491163e+00 1.413893371093e+00 1.413240186062e+00 1.413052367641e+00 1.413315485093e+00 1.414015235049e+00 1.415124443693e+00 1.416616533222e+00 1.418451744765e+00 1.420591719292e+00 1.422985166371e+00 1.425583387493e+00 1.428325685211e+00 1.431155586488e+00 1.434006273720e+00 1.436817191329e+00 1.439519749443e+00 1.442053918783e+00 1.444354411256e+00 1.446366798110e+00 1.448034315735e+00 1.449312982228e+00 1.450159102751e+00 1.450542773306e+00 1.450435869153e+00 1.449823217159e+00 1.448691884535e+00 1.447040678439e+00 1.444871002406e+00 1.442194150268e+00 1.439023957847e+00 1.435381843620e+00 1.431291512738e+00 1.426781722143e+00 1.421883250952e+00 1.416629408938e+00 1.411055402324e+00 1.405196618316e+00 1.399090422630e+00 1.392772268002e+00 1.386279876500e+00 1.379647244754e+00 1.372911097169e+00 1.366102894626e+00 1.359257393601e+00 1.352402803160e+00 1.345571246497e+00 1.338787247749e+00 1.332079863668e+00 1.325469713093e+00 1.318982525680e+00 1.312634950650e+00 1.306449256050e+00 1.300438168883e+00 1.294620452176e+00 1.289005035925e+00 1.283607200201e+00 1.278432255992e+00 1.273492070413e+00 1.268788549105e+00 1.264330253605e+00 1.260115923254e+00 1.256150953982e+00 1.252431178466e+00 1.248958998928e+00 1.245727620550e+00 1.242736657308e+00 1.239976986447e+00 1.237445674785e+00 1.235131592612e+00 1.233029537303e+00 1.231126714427e+00 1.229415965024e+00 1.227883191162e+00 1.226519621984e+00 1.225310231451e+00 1.224245005590e+00 1.223308372578e+00 1.222489458896e+00 1.221772526996e+00 1.221146230810e+00 1.220595034490e+00 1.220107497525e+00 1.219668629808e+00 1.219267253179e+00 1.218889233475e+00 1.218523978452e+00 1.218158476563e+00 1.217783000874e+00 1.217385877029e+00 1.216958469179e+00 1.216490595789e+00 1.215974876985e+00 1.215402716395e+00 1.214768090001e+00 1.214064014696e+00 1.213285856934e+00 1.212428213611e+00 1.211487814758e+00 1.210460749113e+00 1.209345028990e+00 1.208138100959e+00 1.206839133227e+00 1.205446760662e+00 1.203961145954e+00 1.202381917532e+00 1.200710045884e+00 1.198945942383e+00 1.197091181955e+00 1.195146740195e+00 1.193114583499e+00 1.190996030886e+00 1.188793223127e+00 1.186507604133e+00 1.184141271877e+00 1.181695581865e+00 1.179172374959e+00 1.176572712145e+00 1.173897967948e+00 1.171148711325e+00 1.168325648323e+00 1.165428668341e+00 1.162457616229e+00 1.159411526298e+00 1.156289202214e+00 1.153088663124e+00 1.149807509520e+00 1.146442606727e+00 1.142990216510e+00 1.139445943136e+00 1.135804613912e+00 1.132060512339e+00 1.128206996102e+00 1.124237040810e+00 1.120142591277e+00 1.115915438407e+00 1.111546309014e+00 1.107026098002e+00 1.102344713515e+00 1.097492687115e+00 1.092459804733e+00 1.087237119368e+00 1.081815413861e+00 1.076187643759e+00 1.070347294733e+00 1.064291287133e+00 1.058018307541e+00 1.051532209735e+00 1.044840413746e+00 1.037957837592e+00 1.030905470440e+00 1.023714973451e+00 1.016429263674e+00 1.009133496415e+00 1.000000000000e+00 1.000000000000e+00 1.000000000000e+00 1.000000000000e+00 
1.000000000000e+00 1.000349116454e+00 1.001398306750e+00 1.003151963969e+00 1.005617959310e+00 1.008806356794e+00 1.012730202090e+00 1.017403953549e+00 1.022844098080e+00 1.029067258458e+00 1.036090621762e+00 1.043929657704e+00 1.052598362749e+00 1.062106550091e+00 1.072459961212e+00 1.083657153791e+00 1.095689627268e+00 1.108538450409e+00 1.122174690190e+00 1.136556075986e+00 1.151628183236e+00 1.167321574940e+00 1.183554293821e+00 1.200229948265e+00 1.217241982613e+00 1.234472954713e+00 1.251800677615e+00 1.269098424148e+00 1.286242417016e+00 1.303112071017e+00 1.319597758887e+00 1.335599862173e+00 1.351035669970e+00 1.365836280254e+00 1.379952037539e+00 1.393347101189e+00 1.406003647640e+00 1.417914684304e+00 1.429087778176e+00 1.439536992199e+00 1.449286911113e+00 1.458364403311e+00 1.466803382066e+00 1.474636740801e+00 1.481901920996e+00 1.488633087669e+00 1.494867346182e+00 1.500637100842e+00 1.505976684505e+00 1.510914840938e+00 1.515481545163e+00 1.519700604152e+00 1.523596494164e+00 1.527187136896e+00 1.530490629587e+00 1.533518302692e+00 1.536281257590e+00 1.538783841046e+00 1.541029932607e+00 1.543016979924e+00 1.544741993229e+00 1.546196271933e+00 1.547371062861e+00 1.548253065730e+00 1.548829686410e+00 1.549085324517e+00 1.549006097837e+00 1.548576539032e+00 1.547783866899e+00 1.546615539788e+00 1.545062677327e+00 1.543118235737e+00 1.540779701482e+00 1.538047641052e+00 1.534927664743e+00 1.531429217401e+00 1.527566902107e+00 1.523359396842e+00 1.518830292096e+00 1.514007022676e+00 1.508921419174e+00 1.503608532748e+00 1.498107121778e+00 1.492458227292e+00 1.486705824048e+00 1.480894987613e+00 1.475072939532e+00 1.469286638027e+00 1.463584440589e+00 1.458012950479e+00 1.452619507341e+00 1.447448131772e+00 1.442543035125e+00 1.437943523876e+00 1.433688693487e+00 1.429811182537e+00 1.426343182798e+00 1.423308968417e+00 1.420732313644e+00 1.418627758660e+00 1.417009470331e+00 1.415881229220e+00 1.415246681069e+00 1.415098012843e+00 1.415427343045e+00 1.416213906317e+00 1.417436822190e+00 1.419061701751e+00 1.421054624284e+00 1.423368070252e+00 1.425955935307e+00 1.428759092404e+00 1.431721255121e+00 1.434774472796e+00 1.437855579321e+00 1.440891897474e+00 1.443817923051e+00 1.446561466467e+00 1.449060140211e+00 1.451248107044e+00 1.453071865795e+00 1.454477699186e+00 1.455426161568e+00 1.455880147306e+00 1.455817099223e+00 1.455217026923e+00 1.454072817030e+00 1.452380349681e+00 1.450146757288e+00 1.447382158705e+00 1.444105663976e+00 1.440339011278e+00 1.436110297875e+00 1.431449788063e+00 1.426391405465e+00 1.420970902676e+00 1.415225151745e+00 1.409192759103e+00 1.402911190777e+00 1.396419817635e+00 1.389754925464e+00 1.382955098103e+00 1.376054192203e+00 1.369088909204e+00 1.362089853766e+00 1.355091104399e+00 1.348119515217e+00 1.341206064479e+00 1.334373595575e+00 1.327649699926e+00 1.321053121816e+00 1.314607915970e+00 1.308328760869e+00 1.302236121885e+00 1.296340729090e+00 1.290659474360e+00 1.285199313007e+00 1.279973627751e+00 1.274985809508e+00 1.270245832151e+00 1.265753757165e+00 1.261516279866e+00 1.257530386118e+00 1.253799652068e+00 1.250318259592e+00 1.247086856513e+00 1.244097111891e+00 1.241346971059e+00 1.238825903436e+00 1.236529415509e+00 1.234445113709e+00 1.232566367772e+00 1.230879280540e+00 1.229375423094e+00 1.228039773211e+00 1.226862471541e+00 1.225827761857e+00 1.224924743702e+00 1.224137321336e+00 1.223453952178e+00 1.222858588110e+00 1.222339440255e+00 1.221880876429e+00 1.221471240967e+00 1.221095655855e+00 1.220742949108e+00 1.220399294494e+00 1.220054313315e+00 1.219695478573e+00 1.219313462945e+00 1.218897227735e+00 1.218438694615e+00 1.217928437666e+00 1.217359758482e+00 1.216724900746e+00 1.216018607844e+00 1.215234783341e+00 1.214369607451e+00 1.213418572811e+00 1.212379231167e+00 1.211248541338e+00 1.210025310557e+00 1.208707799918e+00 1.207295916334e+00 1.205789029750e+00 1.204187962088e+00 1.202492979801e+00 1.200705616052e+00 1.198826811473e+00 1.196858595620e+00 1.194802357907e+00 1.192660404520e+00 1.190434350140e+00 1.188126557315e+00 1.185738647607e+00 1.183272822177e+00 1.180730498123e+00 1.178113501999e+00 1.175422843206e+00 1.172659766441e+00 1.169824678968e+00 1.166918043703e+00 1.163939480928e+00 1.160888481012e+00 1.157763703592e+00 1.154563487829e+00 1.151285373401e+00 1.147926386767e+00 1.144482808577e+00 1.140950216742e+00 1.137323524312e+00 1.133596764284e+00 1.129763420914e+00 1.125815947268e+00 1.121746411709e+00 1.117545747281e+00 1.113204734257e+00 1.108712990708e+00 1.104060311976e+00 1.099235424364e+00 1.094227703735e+00 1.089025729186e+00 1.083619406002e+00 1.077998373189e+00 1.072154560739e+00 1.066080523157e+00 1.059772466525e+00 1.053228597754e+00 1.046452660833e+00 1.039452404625e+00 1.032243671780e+00 1.024849208043e+00 1.017305152773e+00 1.009687328265e+00 1.000000000000e+00 1.000000000000e+00 1.000000000000e+00 1.000000000000e+00 